[ moleculetype ]
; Name            nrexcl
6F                  3
;
[ atoms ]
;   nr       type  resnr residue  atom   cgnr     charge       mass  typeB    chargeB      massB
; residue   1 6f_ rtp 6f_  q -0.1
     1     CG2R61      1    6f_     C1      1      0.149     12.011   ; qtot 0.149
     2      NG311      1    6f_     N2      2     -0.661     14.007   ; qtot -0.661
     3     HGPAM1      1    6f_     H3      3      0.371      1.008   ; qtot 0.371
     4      CG311      1    6f_     C4      4      0.124     12.011   ; qtot 0.124
     5       HGA1      1    6f_     H5      5       0.09      1.008   ; qtot 0.09
     6      NG2S0      1    6f_     N6      6      0.282     14.007   ; qtot 0.282
     7      CG2O1      1    6f_     C7      7      0.463     12.011   ; qtot 0.463
     8      NG2D1      1    6f_     N8      8      -0.47     14.007   ; qtot -0.47
     9      CG321      1    6f_     C9      9      0.012     12.011   ; qtot 0.012
    10       HGA2      1    6f_    H10     10       0.09      1.008   ; qtot 0.09
    11       HGA2      1    6f_    H11     11       0.09      1.008   ; qtot 0.09
    12      NG2S1      1    6f_    N12     12     -0.376     14.007   ; qtot -0.376
    13       HGP1      1    6f_    H13     13      0.303      1.008   ; qtot 0.303
    14      CG2O1      1    6f_    C14     14      0.347     12.011   ; qtot 0.347
    15      OG2D1      1    6f_    O15     15     -0.467    15.9994   ; qtot -0.467
    16     CG2R61      1    6f_    C16     16       -0.1     12.011   ; qtot -0.1
    17      OG2D1      1    6f_    O17     17     -0.432    15.9994   ; qtot -0.432
    18     CG2R61      1    6f_    C18     18      -0.06     12.011   ; qtot -0.06
    19      HGR61      1    6f_    H19     19      0.116      1.008   ; qtot 0.116
    20     CG2R61      1    6f_    C20     20     -0.099     12.011   ; qtot -0.099
    21      HGR62      1    6f_    H21     21       0.15      1.008   ; qtot 0.15
    22     CG2R61      1    6f_    C22     22      0.044     12.011   ; qtot 0.044
    23     CG2R61      1    6f_    C23     23     -0.099     12.011   ; qtot -0.099
    24      HGR62      1    6f_    H24     24       0.15      1.008   ; qtot 0.15
    25     CG2R61      1    6f_    C25     25      -0.06     12.011   ; qtot -0.06
    26      HGR61      1    6f_    H26     26      0.116      1.008   ; qtot 0.116
    27     CG2R61      1    6f_    C27     27     -0.193     12.011   ; qtot -0.193
    28     CG2R61      1    6f_    C28     28     -0.114     12.011   ; qtot -0.114
    29      HGR61      1    6f_    H29     29      0.116      1.008   ; qtot 0.116
    30     CG2R61      1    6f_    C30     30     -0.113     12.011   ; qtot -0.113
    31      HGR61      1    6f_    H31     31      0.116      1.008   ; qtot 0.116
    32     CG2R61      1    6f_    C32     32     -0.126     12.011   ; qtot -0.126
    33      HGR61      1    6f_    H33     33      0.116      1.008   ; qtot 0.116
    34     CG2R61      1    6f_    C34     34     -0.056     12.011   ; qtot -0.056
    35      HGR61      1    6f_    H35     35      0.116      1.008   ; qtot 0.116
    36     CG2DC1      1    6f_    C36     36     -0.261     12.011   ; qtot -0.261
    37       HGA4      1    6f_    H37     37       0.24      1.008   ; qtot 0.24
    38     CG2R61      1    6f_    C38     38      0.238     12.011   ; qtot 0.238
    39     CG2R61      1    6f_    C39     39     -0.118     12.011   ; qtot -0.118
    40      HGR61      1    6f_    H40     40      0.116      1.008   ; qtot 0.116
    41     CG2R61      1    6f_    C41     41     -0.114     12.011   ; qtot -0.114
    42      HGR61      1    6f_    H42     42      0.116      1.008   ; qtot 0.116
    43     CG2R61      1    6f_    C43     43      0.108     12.011   ; qtot 0.108
    44     CG2R61      1    6f_    C44     44     -0.114     12.011   ; qtot -0.114
    45      HGR61      1    6f_    H45     45      0.116      1.008   ; qtot 0.116
    46     CG2R61      1    6f_    C46     46     -0.118     12.011   ; qtot -0.118
    47      HGR61      1    6f_    H47     47      0.116      1.008   ; qtot 0.116
    48      OG311      1    6f_    O48     48     -0.531    15.9994   ; qtot -0.531
    49       HGP1      1    6f_    H49     49      0.421      1.008   ; qtot 0.421
    50      CLGR1      1    6f_   CL50     50       -0.2     35.453   ; qtot -0.2
    51        LPH      1    6f_    LP1     50       0.05          0   ; qtot 0.05

[ bonds ]
;  ai    aj funct            c0            c1            c2            c3
    1     2     1
    1    27     1
    1    32     1
    2     3     1
    2     4     1
    4     5     1
    4     6     1
    4     9     1
    6     7     1
    6     8     1
    7    17     1
    7    27     1
    8    36     1
    9    10     1
    9    11     1
    9    12     1
   12    13     1
   12    14     1
   14    15     1
   14    16     1
   16    18     1
   16    25     1
   18    19     1
   18    20     1
   20    21     1
   20    22     1
   22    23     1
   22    50     1
   23    24     1
   23    25     1
   25    26     1
   27    34     1
   28    29     1
   28    30     1
   28    34     1
   30    31     1
   30    32     1
   32    33     1
   34    35     1
   36    37     1
   36    38     1
   38    39     1
   38    46     1
   39    40     1
   39    41     1
   41    42     1
   41    43     1
   43    44     1
   43    48     1
   44    45     1
   44    46     1
   46    47     1
   48    49     1

[ pairs ]
;  ai    aj funct            c0            c1            c2            c3
    1     5     1
    1     6     1
    1     9     1
    1    17     1
    1    28     1
    1    31     1
    1    35     1
    2     7     1
    2     8     1
    2    10     1
    2    11     1
    2    12     1
    2    30     1
    2    33     1
    2    34     1
    3     5     1
    3     6     1
    3     9     1
    3    27     1
    3    32     1
    4    13     1
    4    14     1
    4    17     1
    4    27     1
    4    32     1
    4    36     1
    5     7     1
    5     8     1
    5    10     1
    5    11     1
    5    12     1
    6    10     1
    6    11     1
    6    12     1
    6    34     1
    6    37     1
    6    38     1
    7     9     1
    7    28     1
    7    32     1
    7    35     1
    7    36     1
    8     9     1
    8    17     1
    8    27     1
    8    39     1
    8    46     1
    9    15     1
    9    16     1
   10    13     1
   10    14     1
   11    13     1
   11    14     1
   12    18     1
   12    25     1
   13    15     1
   13    16     1
   14    19     1
   14    20     1
   14    23     1
   14    26     1
   15    18     1
   15    25     1
   16    21     1
   16    22     1
   16    24     1
   17    34     1
   18    23     1
   18    26     1
   18    50     1
   19    21     1
   19    22     1
   19    25     1
   20    24     1
   20    25     1
   21    23     1
   21    50     1
   22    26     1
   24    26     1
   24    50     1
   25    50     1
   27    29     1
   27    30     1
   27    33     1
   28    33     1
   29    31     1
   29    32     1
   29    35     1
   30    35     1
   31    33     1
   31    34     1
   32    34     1
   36    40     1
   36    41     1
   36    44     1
   36    47     1
   37    39     1
   37    46     1
   38    42     1
   38    43     1
   38    45     1
   39    44     1
   39    47     1
   39    48     1
   40    42     1
   40    43     1
   40    46     1
   41    45     1
   41    46     1
   41    49     1
   42    44     1
   42    48     1
   43    47     1
   44    49     1
   45    47     1
   45    48     1
   46    48     1
   51    18     1
   51    21     1
   51    24     1
   51    25     1

[ angles ]
;  ai    aj    ak funct            c0            c1            c2            c3
    2     1    27     5
    2     1    32     5
   27     1    32     5
    1     2     3     5
    1     2     4     5
    3     2     4     5
    2     4     5     5
    2     4     6     5
    2     4     9     5
    5     4     6     5
    5     4     9     5
    6     4     9     5
    4     6     7     5
    4     6     8     5
    7     6     8     5
    6     7    17     5
    6     7    27     5
   17     7    27     5
    6     8    36     5
    4     9    10     5
    4     9    11     5
    4     9    12     5
   10     9    11     5
   10     9    12     5
   11     9    12     5
    9    12    13     5
    9    12    14     5
   13    12    14     5
   12    14    15     5
   12    14    16     5
   15    14    16     5
   14    16    18     5
   14    16    25     5
   18    16    25     5
   16    18    19     5
   16    18    20     5
   19    18    20     5
   18    20    21     5
   18    20    22     5
   21    20    22     5
   20    22    23     5
   20    22    50     5
   23    22    50     5
   22    23    24     5
   22    23    25     5
   24    23    25     5
   16    25    23     5
   16    25    26     5
   23    25    26     5
    1    27     7     5
    1    27    34     5
    7    27    34     5
   29    28    30     5
   29    28    34     5
   30    28    34     5
   28    30    31     5
   28    30    32     5
   31    30    32     5
    1    32    30     5
    1    32    33     5
   30    32    33     5
   27    34    28     5
   27    34    35     5
   28    34    35     5
    8    36    37     5
    8    36    38     5
   37    36    38     5
   36    38    39     5
   36    38    46     5
   39    38    46     5
   38    39    40     5
   38    39    41     5
   40    39    41     5
   39    41    42     5
   39    41    43     5
   42    41    43     5
   41    43    44     5
   41    43    48     5
   44    43    48     5
   43    44    45     5
   43    44    46     5
   45    44    46     5
   38    46    44     5
   38    46    47     5
   44    46    47     5
   43    48    49     5

[ dihedrals ]
;  ai    aj    ak    al funct            c0            c1            c2            c3            c4            c5
   27     1     2     3     9
   27     1     2     4     9
   32     1     2     3     9
   32     1     2     4     9
    2     1    27     7     9
    2     1    27    34     9
   32     1    27     7     9
   32     1    27    34     9
    2     1    32    30     9
    2     1    32    33     9
   27     1    32    30     9
   27     1    32    33     9
    1     2     4     5     9
    1     2     4     6     9
    1     2     4     9     9
    3     2     4     5     9
    3     2     4     6     9
    3     2     4     9     9
    2     4     6     7     9
    2     4     6     8     9
    5     4     6     7     9
    5     4     6     8     9
    9     4     6     7     9
    9     4     6     8     9
    2     4     9    10     9
    2     4     9    11     9
    2     4     9    12     9
    5     4     9    10     9
    5     4     9    11     9
    5     4     9    12     9
    6     4     9    10     9
    6     4     9    11     9
    6     4     9    12     9
    4     6     7    17     9
    4     6     7    27     9
    8     6     7    17     9
    8     6     7    27     9
    4     6     8    36     9
    7     6     8    36     9
    6     7    27     1     9
    6     7    27    34     9
   17     7    27     1     9
   17     7    27    34     9
    6     8    36    37     9
    6     8    36    38     9
    4     9    12    13     9
    4     9    12    14     9
   10     9    12    13     9
   10     9    12    14     9
   11     9    12    13     9
   11     9    12    14     9
    9    12    14    15     9
    9    12    14    16     9
   13    12    14    15     9
   13    12    14    16     9
   12    14    16    18     9
   12    14    16    25     9
   15    14    16    18     9
   15    14    16    25     9
   14    16    18    19     9
   14    16    18    20     9
   25    16    18    19     9
   25    16    18    20     9
   14    16    25    23     9
   14    16    25    26     9
   18    16    25    23     9
   18    16    25    26     9
   16    18    20    21     9
   16    18    20    22     9
   19    18    20    21     9
   19    18    20    22     9
   18    20    22    23     9
   18    20    22    50     9
   21    20    22    23     9
   21    20    22    50     9
   20    22    23    24     9
   20    22    23    25     9
   50    22    23    24     9
   50    22    23    25     9
   22    23    25    16     9
   22    23    25    26     9
   24    23    25    16     9
   24    23    25    26     9
    1    27    34    28     9
    1    27    34    35     9
    7    27    34    28     9
    7    27    34    35     9
   29    28    30    31     9
   29    28    30    32     9
   34    28    30    31     9
   34    28    30    32     9
   29    28    34    27     9
   29    28    34    35     9
   30    28    34    27     9
   30    28    34    35     9
   28    30    32     1     9
   28    30    32    33     9
   31    30    32     1     9
   31    30    32    33     9
    8    36    38    39     9
    8    36    38    46     9
   37    36    38    39     9
   37    36    38    46     9
   36    38    39    40     9
   36    38    39    41     9
   46    38    39    40     9
   46    38    39    41     9
   36    38    46    44     9
   36    38    46    47     9
   39    38    46    44     9
   39    38    46    47     9
   38    39    41    42     9
   38    39    41    43     9
   40    39    41    42     9
   40    39    41    43     9
   39    41    43    44     9
   39    41    43    48     9
   42    41    43    44     9
   42    41    43    48     9
   41    43    44    45     9
   41    43    44    46     9
   48    43    44    45     9
   48    43    44    46     9
   41    43    48    49     9
   44    43    48    49     9
   43    44    46    38     9
   43    44    46    47     9
   45    44    46    38     9
   45    44    46    47     9

[ dihedrals ]
;  ai    aj    ak    al funct            c0            c1            c2            c3            c4            c5
    7    27     6    17     2
   14    16    12    15     2
   36    38     8    37     2

[ exclusions ]
51 50 22 23 18 21 24 25 20 

[ virtual_sites3 ]
; Site   from        funct theta d
   51    50    22    23     3 180.00   0.16

 
