GROwing Monsters And Cloning Shrimps
   50
    06F       C    1  -1.089  -4.611   2.865
    06F       N    2  -1.124  -4.567   2.738
    06F       C    3  -1.207  -4.447   2.723
    06F       N    4  -1.315  -4.447   2.822
    06F       C    5  -1.283  -4.489   2.954
    06F       N    6  -1.438  -4.393   2.778
    06F       C    7  -1.122  -4.316   2.739
    06F       N    8  -1.081  -4.288   2.879
    06F       C    9  -0.957  -4.318   2.929
    06F       O   10  -0.868  -4.343   2.847
    06F       C   11  -0.936  -4.312   3.074
    06F       O   12  -1.344  -4.436   3.046
    06F       C   13  -1.044  -4.291   3.163
    06F       C   14  -1.021  -4.274   3.299
    06F       C   15  -0.891  -4.279   3.349
    06F       C   16  -0.784  -4.307   3.264
    06F       C   17  -0.807  -4.324   3.128
    06F       C   18  -1.168  -4.575   2.975
    06F       C   19  -1.012  -4.691   3.119
    06F       C   20  -0.934  -4.725   3.009
    06F       C   21  -0.974  -4.688   2.881
    06F       C   22  -1.128  -4.617   3.102
    06F       C   23  -1.545  -4.422   2.844
    06F       C   24  -1.677  -4.370   2.812
    06F       C   25  -1.702  -4.286   2.703
    06F       C   26  -1.830  -4.236   2.679
    06F       C   27  -1.933  -4.271   2.766
    06F       C   28  -1.912  -4.358   2.872
    06F       C   29  -1.784  -4.406   2.895
    06F       O   30  -2.056  -4.217   2.750
    06F      CL   31  -0.865  -4.245   3.517
    06F       H   32  -1.049  -4.576   2.666
    06F       H   33  -1.251  -4.448   2.624
    06F      H1   34  -1.184  -4.233   2.704
    06F      H2   35  -1.034  -4.322   2.675
    06F       H   36  -1.157  -4.276   2.948
    06F       H   37  -1.143  -4.286   3.128
    06F       H   38  -1.102  -4.256   3.365
    06F       H   39  -0.686  -4.316   3.303
    06F       H   40  -0.725  -4.344   3.064
    06F       H   41  -0.982  -4.722   3.216
    06F       H   42  -0.846  -4.782   3.023
    06F       H   43  -0.918  -4.717   2.796
    06F       H   44  -1.187  -4.592   3.187
    06F       H   45  -1.539  -4.488   2.927
    06F       H   46  -1.623  -4.260   2.637
    06F       H   47  -1.849  -4.172   2.598
    06F       H   48  -1.992  -4.387   2.935
    06F       H   49  -1.767  -4.471   2.977
    06F       H   50  -2.106  -4.225   2.834
   0.00000   0.00000   0.00000
